# vtk DataFile Version 2.0
Param>Np=     445;Nt=     811;Ne=      77;PCT=     0m 0s  20ms;PCTcpu=   1.51499994E-02s;PCTcl=       19;CT=     0m 1s 918ms;CTcpu=   1.89950490s;CTcl=     1918
ASCII
DATASET UNSTRUCTURED_GRID
POINTS        445 float
    3.60000000E-01    1.99000000E+00    0.00000000E+00
    3.27272727E-01    1.89090909E+00    0.00000000E+00
    2.94545455E-01    1.79181818E+00    0.00000000E+00
    4.67804940E-01    1.99000000E+00    0.00000000E+00
    4.26321864E-01    1.89941409E+00    0.00000000E+00
    2.29090909E-01    1.59363636E+00    0.00000000E+00
    2.61818182E-01    1.69272727E+00    0.00000000E+00
    3.89400406E-01    1.80630711E+00    0.00000000E+00
    3.56752636E-01    1.71090784E+00    0.00000000E+00
    5.79125525E-01    1.99000000E+00    0.00000000E+00
    5.29419175E-01    1.90045732E+00    0.00000000E+00
    4.84034092E-01    1.81881127E+00    0.00000000E+00
    1.96363636E-01    1.49454545E+00    0.00000000E+00
    1.63636364E-01    1.39545455E+00    0.00000000E+00
    2.93821672E-01    1.51565289E+00    0.00000000E+00
    3.25865359E-01    1.61441309E+00    0.00000000E+00
    4.47574924E-01    1.72615439E+00    0.00000000E+00
    4.21923607E-01    1.63508883E+00    0.00000000E+00
    6.90448913E-01    1.99000000E+00    0.00000000E+00
    6.36114347E-01    1.89813106E+00    0.00000000E+00
    5.83114283E-01    1.80638748E+00    0.00000000E+00
    5.27948840E-01    1.74506829E+00    0.00000000E+00
    1.30909091E-01    1.29636364E+00    0.00000000E+00
    9.81818182E-02    1.19727273E+00    0.00000000E+00
    2.60809447E-01    1.41661190E+00    0.00000000E+00
    2.27727751E-01    1.31790408E+00    0.00000000E+00
    3.59012833E-01    1.44056610E+00    0.00000000E+00
    3.91787253E-01    1.53880285E+00    0.00000000E+00
    5.21772846E-01    1.65892973E+00    0.00000000E+00
    4.91751794E-01    1.56285038E+00    0.00000000E+00
    8.01772302E-01    1.99000000E+00    0.00000000E+00
    7.46006215E-01    1.89817102E+00    0.00000000E+00
    6.88572075E-01    1.80377070E+00    0.00000000E+00
    6.21030890E-01    1.70622697E+00    0.00000000E+00
    6.54545455E-02    1.09818182E+00    0.00000000E+00
    3.27272727E-02    9.99090909E-01    0.00000000E+00
    1.94900999E-01    1.21964374E+00    0.00000000E+00
    1.60384655E-01    1.12298900E+00    0.00000000E+00
    3.25531360E-01    1.34214332E+00    0.00000000E+00
    2.92897058E-01    1.24493921E+00    0.00000000E+00
    4.24783356E-01    1.36703258E+00    0.00000000E+00
    4.58576580E-01    1.46489630E+00    0.00000000E+00
    5.95445747E-01    1.59271270E+00    0.00000000E+00
    5.59754781E-01    1.48952285E+00    0.00000000E+00
    9.13095690E-01    1.99000000E+00    0.00000000E+00
    8.57386025E-01    1.89909954E+00    0.00000000E+00
    8.01743944E-01    1.80802546E+00    0.00000000E+00
    7.40517414E-01    1.71141429E+00    0.00000000E+00
    6.96159454E-01    1.61273805E+00    0.00000000E+00
    0.00000000E+00    9.00000000E-01    0.00000000E+00
    1.23582164E-01    1.02568076E+00    0.00000000E+00
    8.85381419E-02    9.46830563E-01    0.00000000E+00
    2.60870738E-01    1.14703439E+00    0.00000000E+00
    2.22731723E-01    1.05181313E+00    0.00000000E+00
    3.91774400E-01    1.27063419E+00    0.00000000E+00
    3.58176397E-01    1.17386724E+00    0.00000000E+00
    4.92585798E-01    1.29558406E+00    0.00000000E+00
    5.25657971E-01    1.39150631E+00    0.00000000E+00
    6.60119313E-01    1.51238004E+00    0.00000000E+00
    6.25689530E-01    1.41511823E+00    0.00000000E+00
    1.02441908E+00    1.99000000E+00    0.00000000E+00
    9.68737513E-01    1.89962342E+00    0.00000000E+00
    9.12961161E-01    1.80877893E+00    0.00000000E+00
    8.56795768E-01    1.71570910E+00    0.00000000E+00
    8.03961849E-01    1.62116785E+00    0.00000000E+00
    7.60800839E-01    1.52828686E+00    0.00000000E+00
    1.02274037E-01    8.69621573E-01    0.00000000E+00
    1.84107236E-01    9.39759570E-01    0.00000000E+00
    2.80375851E-01    9.84840681E-01    0.00000000E+00
    3.36152598E-01    1.06894577E+00    0.00000000E+00
    4.56704583E-01    1.20026196E+00    0.00000000E+00
    4.20840284E-01    1.12060317E+00    0.00000000E+00
    5.61726115E-01    1.22535927E+00    0.00000000E+00
    5.94898156E-01    1.31872918E+00    0.00000000E+00
    7.23153503E-01    1.43586334E+00    0.00000000E+00
    6.91346736E-01    1.34322593E+00    0.00000000E+00
    1.13574247E+00    1.99000000E+00    0.00000000E+00
    1.08003769E+00    1.89986273E+00    0.00000000E+00
    1.02435601E+00    1.80955215E+00    0.00000000E+00
    9.68583069E-01    1.71870214E+00    0.00000000E+00
    9.14234582E-01    1.62692227E+00    0.00000000E+00
    8.63211990E-01    1.53633329E+00    0.00000000E+00
    8.18198922E-01    1.45123859E+00    0.00000000E+00
    1.24706585E+00    1.99000000E+00    0.00000000E+00
    2.06834754E-01    8.38563935E-01    0.00000000E+00
    2.89311949E-01    9.01476108E-01    0.00000000E+00
    3.66380392E-01    9.66350525E-01    0.00000000E+00
    4.43706191E-01    1.03810051E+00    0.00000000E+00
    5.24916830E-01    1.11927644E+00    0.00000000E+00
    6.17944669E-01    1.16115387E+00    0.00000000E+00
    6.72387596E-01    1.24158425E+00    0.00000000E+00
    7.84504492E-01    1.36621056E+00    0.00000000E+00
    7.56955288E-01    1.29037672E+00    0.00000000E+00
    1.19129950E+00    1.89997702E+00    0.00000000E+00
    1.13567155E+00    1.81002379E+00    0.00000000E+00
    8.61807721E-01    1.38696460E+00    0.00000000E+00
    1.08003286E+00    1.71985033E+00    0.00000000E+00
    1.02400462E+00    1.62984836E+00    0.00000000E+00
    9.68998600E-01    1.53995618E+00    0.00000000E+00
    9.15883809E-01    1.45365836E+00    0.00000000E+00
    1.30251043E+00    1.89993879E+00    0.00000000E+00
    1.35838924E+00    1.99000000E+00    0.00000000E+00
    3.11396429E-01    8.07506011E-01    0.00000000E+00
    3.90570821E-01    8.72912407E-01    0.00000000E+00
    4.67094159E-01    9.41569394E-01    0.00000000E+00
    5.46852883E-01    1.01185779E+00    0.00000000E+00
    6.26714308E-01    1.07756519E+00    0.00000000E+00
    7.03983303E-01    1.14198715E+00    0.00000000E+00
    7.79885318E-01    1.21025970E+00    0.00000000E+00
    8.56652297E-01    1.29060314E+00    0.00000000E+00
    1.24665165E+00    1.81014311E+00    0.00000000E+00
    1.19073383E+00    1.72056100E+00    0.00000000E+00
    9.62815561E-01    1.35527650E+00    0.00000000E+00
    1.13445093E+00    1.63128211E+00    0.00000000E+00
    1.07781395E+00    1.54242871E+00    0.00000000E+00
    1.02027006E+00    1.45218096E+00    0.00000000E+00
    1.35779840E+00    1.80994146E+00    0.00000000E+00
    1.41373126E+00    1.89980929E+00    0.00000000E+00
    1.46971263E+00    1.99000000E+00    0.00000000E+00
    4.15958105E-01    7.76448088E-01    0.00000000E+00
    4.93562173E-01    8.44032717E-01    0.00000000E+00
    5.71623990E-01    9.12496160E-01    0.00000000E+00
    6.49540709E-01    9.80594504E-01    0.00000000E+00
    7.27916541E-01    1.04720650E+00    0.00000000E+00
    8.05910564E-01    1.11410487E+00    0.00000000E+00
    8.83939898E-01    1.18280025E+00    0.00000000E+00
    9.66771978E-01    1.24498459E+00    0.00000000E+00
    1.04009730E+00    1.29292857E+00    0.00000000E+00
    1.30178234E+00    1.72057584E+00    0.00000000E+00
    1.24558739E+00    1.63196082E+00    0.00000000E+00
    1.07254929E+00    1.37039505E+00    0.00000000E+00
    1.18905315E+00    1.54332091E+00    0.00000000E+00
    1.13010634E+00    1.45798375E+00    0.00000000E+00
    1.41296244E+00    1.71999245E+00    0.00000000E+00
    1.46894200E+00    1.80960789E+00    0.00000000E+00
    1.52498144E+00    1.89966449E+00    0.00000000E+00
    1.58103602E+00    1.99000000E+00    0.00000000E+00
    5.20519781E-01    7.45390164E-01    0.00000000E+00
    5.97798269E-01    8.13766155E-01    0.00000000E+00
    6.75388530E-01    8.82157616E-01    0.00000000E+00
    7.53378029E-01    9.49799499E-01    0.00000000E+00
    8.31500356E-01    1.01693466E+00    0.00000000E+00
    9.09725198E-01    1.08387786E+00    0.00000000E+00
    9.88455643E-01    1.14938003E+00    0.00000000E+00
    1.06459280E+00    1.21296951E+00    0.00000000E+00
    1.13375690E+00    1.28101718E+00    0.00000000E+00
    1.35696166E+00    1.63095374E+00    0.00000000E+00
    1.30094719E+00    1.54229409E+00    0.00000000E+00
    1.19134844E+00    1.36670272E+00    0.00000000E+00
    1.24549932E+00    1.45402756E+00    0.00000000E+00
    1.46814125E+00    1.62992033E+00    0.00000000E+00
    1.52407582E+00    1.71936017E+00    0.00000000E+00
    1.58009741E+00    1.80928453E+00    0.00000000E+00
    1.63618942E+00    1.89954332E+00    0.00000000E+00
    1.69235941E+00    1.99000000E+00    0.00000000E+00
    6.25081457E-01    7.14332241E-01    0.00000000E+00
    7.02301242E-01    7.82973929E-01    0.00000000E+00
    7.79666854E-01    8.51436442E-01    0.00000000E+00
    8.57442138E-01    9.19179792E-01    0.00000000E+00
    9.35424214E-01    9.86412932E-01    0.00000000E+00
    1.01374093E+00    1.05283856E+00    0.00000000E+00
    1.09226804E+00    1.11844095E+00    0.00000000E+00
    1.17182013E+00    1.18496462E+00    0.00000000E+00
    1.26323326E+00    1.25681566E+00    0.00000000E+00
    1.41240909E+00    1.54106143E+00    0.00000000E+00
    1.35756875E+00    1.45306749E+00    0.00000000E+00
    1.30552390E+00    1.36534867E+00    0.00000000E+00
    1.52335592E+00    1.53949619E+00    0.00000000E+00
    1.80368280E+00    1.99000000E+00    0.00000000E+00
    1.57919846E+00    1.62892092E+00    0.00000000E+00
    1.63517808E+00    1.71882598E+00    0.00000000E+00
    1.69111807E+00    1.80904426E+00    0.00000000E+00
    1.74725161E+00    1.89939243E+00    0.00000000E+00
    1.91500619E+00    1.99000000E+00    0.00000000E+00
    7.29643133E-01    6.83274317E-01    0.00000000E+00
    8.06887203E-01    7.51965500E-01    0.00000000E+00
    8.84165499E-01    8.20495187E-01    0.00000000E+00
[...]
POINT_DATA       445
SCALARS Temperature float
LOOKUP_TABLE default
    0.00000000E+00
    0.00000000E+00
    0.00000000E+00
    0.00000000E+00
    1.00000000E+01
    0.00000000E+00
    0.00000000E+00
    1.00000000E+01
    1.00000000E+01
    0.00000000E+00
    1.00000000E+01
    1.00000000E+01
    0.00000000E+00
    0.00000000E+00
    1.00000000E+01
    1.00000000E+01
    1.00000000E+01
    1.00000000E+01
    0.00000000E+00
    1.00000000E+01
    1.00000000E+01
    1.00000000E+01
    0.00000000E+00
    0.00000000E+00
    1.00000000E+01
    1.00000000E+01
    1.00000000E+01
    1.00000000E+01
    1.00000000E+01
    1.00000000E+01
    0.00000000E+00
    1.00000000E+01
    1.00000000E+01
    1.00000000E+01
    0.00000000E+00
    0.00000000E+00
    1.00000000E+01
    1.00000000E+01
    1.00000000E+01
    1.00000000E+01
    1.00000000E+01
    1.00000000E+01
    1.00000000E+01
    1.00000000E+01
    0.00000000E+00
    1.00000000E+01
    1.00000000E+01
    1.00000000E+01
    1.00000000E+01
    0.00000000E+00
    1.00000000E+01
    1.00000000E+01
    1.00000000E+01
    1.00000000E+01
    1.00000000E+01
    1.00000000E+01
    1.00000000E+01
    1.00000000E+01
    1.00000000E+01
    1.00000000E+01
    0.00000000E+00
    1.00000000E+01
    1.00000000E+01
    1.00000000E+01
    1.00000000E+01
    1.00000000E+01
    0.00000000E+00
    1.00000000E+01
    1.00000000E+01
    1.00000000E+01
    1.00000000E+01
    1.00000000E+01
    1.00000000E+01
    1.00000000E+01
    1.00000000E+01
    1.00000000E+01
    0.00000000E+00
    1.00000000E+01
    1.00000000E+01
    1.00000000E+01
    1.00000000E+01
    1.00000000E+01
    1.00000000E+01
    0.00000000E+00
    0.00000000E+00
    1.00000000E+01
    1.00000000E+01
    1.00000000E+01
    1.00000000E+01
    1.00000000E+01
    1.00000000E+01
    1.00000000E+01
    1.00000000E+01
    1.00000000E+01
    1.00000000E+01
    1.00000000E+01
    1.00000000E+01
    1.00000000E+01
    1.00000000E+01
    1.00000000E+01
    1.00000000E+01
    0.00000000E+00
    0.00000000E+00
    1.00000000E+01
    1.00000000E+01
    1.00000000E+01
    1.00000000E+01
    1.00000000E+01
    1.00000000E+01
    1.00000000E+01
    1.00000000E+01
    1.00000000E+01
    1.00000000E+01
    1.00000000E+01
    1.00000000E+01
    1.00000000E+01
    1.00000000E+01
    1.00000000E+01
    0.00000000E+00
    0.00000000E+00
    1.00000000E+01
    1.00000000E+01
    1.00000000E+01
    1.00000000E+01
    1.00000000E+01
    1.00000000E+01
    1.00000000E+01
    1.00000000E+01
    1.00000000E+01
    1.00000000E+01
    1.00000000E+01
    1.00000000E+01
    1.00000000E+01
    1.00000000E+01
    1.00000000E+01
    1.00000000E+01
    0.00000000E+00
    0.00000000E+00
    1.00000000E+01
    1.00000000E+01
    1.00000000E+01
    1.00000000E+01
    1.00000000E+01
    1.00000000E+01
    1.00000000E+01
    1.00000000E+01
    1.00000000E+01
    1.00000000E+01
    1.00000000E+01
    1.00000000E+01
    1.00000000E+01
    1.00000000E+01
    1.00000000E+01
    1.00000000E+01
    0.00000000E+00
    0.00000000E+00
    1.00000000E+01
    1.00000000E+01
    1.00000000E+01
    1.00000000E+01
    1.00000000E+01
    1.00000000E+01
    1.00000000E+01
    1.00000000E+01
    1.00000000E+01
    1.00000000E+01
    1.00000000E+01
    1.00000000E+01
    0.00000000E+00
    1.00000000E+01
    1.00000000E+01
    1.00000000E+01
    1.00000000E+01
    0.00000000E+00
    0.00000000E+00
    1.00000000E+01
    1.00000000E+01
    1.00000000E+01
    1.00000000E+01
    1.00000000E+01
    1.00000000E+01
    1.00000000E+01
    1.00000000E+01
    1.00000000E+01
    1.00000000E+01
    1.00000000E+01
    1.00000000E+01
    1.00000000E+01
    1.00000000E+01
    1.00000000E+01
    1.00000000E+01
    1.00000000E+01
    1.00000000E+01
    0.00000000E+00
    0.00000000E+00
    1.00000000E+01
    1.00000000E+01
    1.00000000E+01
    1.00000000E+01
    1.00000000E+01
    1.00000000E+01
    1.00000000E+01
    1.00000000E+01
    1.00000000E+01
    1.00000000E+01
    1.00000000E+01
    1.00000000E+01
    1.00000000E+01
    1.00000000E+01
    1.00000000E+01
    1.00000000E+01
    1.00000000E+01
    1.00000000E+01
    0.00000000E+00
    0.00000000E+00
    1.00000000E+01
    1.00000000E+01
    1.00000000E+01
    1.00000000E+01
    1.00000000E+01
    1.00000000E+01
    1.00000000E+01
    1.00000000E+01
    1.00000000E+01
    1.00000000E+01
    1.00000000E+01
    1.00000000E+01
    1.00000000E+01
    1.00000000E+01
    1.00000000E+01
    1.00000000E+01
    1.00000000E+01
    1.00000000E+01
    0.00000000E+00
    0.00000000E+00
    1.00000000E+01
    1.00000000E+01
    1.00000000E+01
    1.00000000E+01
    1.00000000E+01
    1.00000000E+01
    1.00000000E+01
    1.00000000E+01
    1.00000000E+01
    1.00000000E+01
    1.00000000E+01
    1.00000000E+01
    1.00000000E+01
    1.00000000E+01
    1.00000000E+01
    1.00000000E+01
    1.00000000E+01
    1.00000000E+01
    1.00000000E+01
    0.00000000E+00
    0.00000000E+00
    1.00000000E+01
    1.00000000E+01
    1.00000000E+01
    1.00000000E+01
    1.00000000E+01
    1.00000000E+01
    1.00000000E+01
    1.00000000E+01
    1.00000000E+01
    1.00000000E+01
    1.00000000E+01
    1.00000000E+01
    1.00000000E+01
    1.00000000E+01
    1.00000000E+01
    1.00000000E+01
    1.00000000E+01
    0.00000000E+00
    0.00000000E+00
    1.00000000E+01
    1.00000000E+01
    1.00000000E+01
    1.00000000E+01
    1.00000000E+01
    1.00000000E+01
    1.00000000E+01
    1.00000000E+01
    1.00000000E+01
    1.00000000E+01
    1.00000000E+01
    1.00000000E+01
    1.00000000E+01
    1.00000000E+01
    1.00000000E+01
    1.00000000E+01
    0.00000000E+00
    0.00000000E+00
    1.00000000E+01
    1.00000000E+01
    1.00000000E+01
    1.00000000E+01
    1.00000000E+01
    1.00000000E+01
    1.00000000E+01
    1.00000000E+01
    1.00000000E+01
    1.00000000E+01
    1.00000000E+01
    1.00000000E+01
    1.00000000E+01
    1.00000000E+01
    1.00000000E+01
    0.00000000E+00
    0.00000000E+00
    1.00000000E+01
    1.00000000E+01
    1.00000000E+01
    1.00000000E+01
    1.00000000E+01
    1.00000000E+01
    1.00000000E+01
    1.00000000E+01
    1.00000000E+01
    1.00000000E+01
    1.00000000E+01
    1.00000000E+01
    1.00000000E+01
    1.00000000E+01
    0.00000000E+00
    0.00000000E+00
    1.00000000E+01
    1.00000000E+01
    1.00000000E+01
    1.00000000E+01
    1.00000000E+01
    1.00000000E+01
    1.00000000E+01
    1.00000000E+01
    1.00000000E+01
    1.00000000E+01
    1.00000000E+01
    1.00000000E+01
    1.00000000E+01
    0.00000000E+00
    0.00000000E+00
    1.00000000E+01
    1.00000000E+01
    1.00000000E+01
    1.00000000E+01
    1.00000000E+01
    1.00000000E+01
    1.00000000E+01
    1.00000000E+01
    1.00000000E+01
    1.00000000E+01
    1.00000000E+01
    1.00000000E+01
    0.00000000E+00
    0.00000000E+00
    1.00000000E+01
    1.00000000E+01
    1.00000000E+01
    1.00000000E+01
    1.00000000E+01
    1.00000000E+01
    1.00000000E+01
    1.00000000E+01
    1.00000000E+01
    1.00000000E+01
    1.00000000E+01
    0.00000000E+00
    0.00000000E+00
    1.00000000E+01
    1.00000000E+01
    1.00000000E+01
    1.00000000E+01
    1.00000000E+01
    1.00000000E+01
    1.00000000E+01
    1.00000000E+01
    1.00000000E+01
    1.00000000E+01
    0.00000000E+00
    0.00000000E+00
    1.00000000E+01
    1.00000000E+01
    1.00000000E+01
    1.00000000E+01
    1.00000000E+01
    1.00000000E+01
    1.00000000E+01
    1.00000000E+01
    1.00000000E+01
    0.00000000E+00
    0.00000000E+00
    1.00000000E+01
    1.00000000E+01
    1.00000000E+01
    1.00000000E+01
    1.00000000E+01
    1.00000000E+01
    1.00000000E+01
    1.00000000E+01
    0.00000000E+00
    0.00000000E+00
    1.00000000E+01
    1.00000000E+01
    1.00000000E+01
    1.00000000E+01
    1.00000000E+01
    1.00000000E+01
    1.00000000E+01
    0.00000000E+00
    0.00000000E+00
    1.00000000E+01
    1.00000000E+01
    1.00000000E+01
    1.00000000E+01
    1.00000000E+01
    1.00000000E+01
    0.00000000E+00
    0.00000000E+00
    1.00000000E+01
    1.00000000E+01
    1.00000000E+01
    1.00000000E+01
    1.00000000E+01
    0.00000000E+00
    0.00000000E+00
    1.00000000E+01
    1.00000000E+01
    1.00000000E+01
    1.00000000E+01
    0.00000000E+00
    0.00000000E+00
    1.00000000E+01
    1.00000000E+01
    1.00000000E+01
    0.00000000E+00
    0.00000000E+00
    1.00000000E+01
    1.00000000E+01
    0.00000000E+00
    0.00000000E+00
    1.00000000E+01
    0.00000000E+00
    0.00000000E+00
    0.00000000E+00
    0.00000000E+00
SCALARS Srad float
LOOKUP_TABLE default
    7.46392657E-04
    7.73880378E-04
    8.01593601E-04
    7.58318371E-04
   -1.31848072E-03
    8.32119647E-04
    8.22652932E-04
   -1.27069766E-03
   -1.22554440E-03
    8.03573711E-04
   -1.25646753E-03
   -1.17274460E-03
    8.28884330E-04
    8.13539736E-04
   -1.17829955E-03
   -1.19352474E-03
   -1.11052944E-03
   -1.06133723E-03
    8.43357526E-04
   -1.19481918E-03
   -1.08135682E-03
   -1.05789802E-03
    7.86640484E-04
    7.48286554E-04
   -1.17968424E-03
   -1.19556267E-03
   -1.03315760E-03
   -1.03791880E-03
   -9.86684372E-04
   -9.51715116E-04
    8.76059775E-04
   -1.14966938E-03
   -1.01193901E-03
   -9.45172879E-04
    6.98736503E-04
    6.46583363E-04
   -1.22533638E-03
   -1.27083196E-03
   -1.04460606E-03
   -1.06949980E-03
   -9.47501471E-04
   -9.41103703E-04
   -8.89643101E-04
   -8.68122452E-04
    9.01766411E-04
   -1.11696338E-03
   -9.72138127E-04
   -8.95404467E-04
   -8.45710468E-04
    6.65749400E-04
   -1.33666603E-03
   -1.39488095E-03
   -1.10682806E-03
   -1.17513618E-03
   -9.69542503E-04
   -1.00873228E-03
   -8.83975339E-04
   -8.67622627E-04
   -8.20917937E-04
   -8.14042432E-04
    9.20581097E-04
   -1.09242735E-03
   -9.42128633E-04
   -8.59669099E-04
   -8.08772800E-04
   -7.82223856E-04
    7.40706470E-04
   -1.28707302E-03
   -1.15473647E-03
   -1.05043032E-03
   -9.16939777E-04
   -9.66455958E-04
   -8.45460676E-04
   -8.20129355E-04
   -7.73321431E-04
   -7.77110942E-04
    9.32932493E-04
   -1.07591055E-03
   -9.21495524E-04
   -8.35722456E-04
   -7.80569811E-04
   -7.52589852E-04
   -7.44464489E-04
    9.39798635E-04
    7.96738252E-04
   -1.22058487E-03
   -1.08589424E-03
   -9.83187509E-04
   -8.86106675E-04
   -8.27603427E-04
   -7.83375564E-04
   -7.45265195E-04
   -7.52162192E-04
   -1.06585067E-03
   -9.08000280E-04
   -7.20447207E-04
   -8.17515511E-04
   -7.59325329E-04
   -7.27888909E-04
   -7.14697804E-04
   -1.06110544E-03
    9.41965072E-04
    8.40370033E-04
   -1.16393161E-03
   -1.02880663E-03
   -9.25725673E-04
   -8.49607297E-04
   -7.87974824E-04
   -7.46598400E-04
   -7.07751126E-04
   -8.99945874E-04
   -8.05611291E-04
   -6.82907007E-04
   -7.43350555E-04
   -7.09765032E-04
   -6.90614710E-04
   -8.96219275E-04
   -1.06096152E-03
    9.40001788E-04
    8.75326545E-04
   -1.11560731E-03
   -9.83323447E-04
   -8.89762632E-04
   -8.13833787E-04
   -7.55813994E-04
   -7.11924688E-04
   -6.81878032E-04
   -6.68033129E-04
   -7.97878943E-04
   -7.32147539E-04
   -6.65650463E-04
   -6.94166061E-04
   -6.72783164E-04
   -7.94657426E-04
   -8.96760928E-04
   -1.06512891E-03
    9.34199686E-04
    9.04012934E-04
   -1.07763953E-03
   -9.50604244E-04
   -8.61538719E-04
   -7.88610708E-04
   -7.31749498E-04
   -6.91444167E-04
   -6.63432127E-04
   -6.43771115E-04
   -7.25253729E-04
   -6.84068355E-04
   -6.41515658E-04
   -6.57862885E-04
   -7.22387661E-04
   -7.96242563E-04
   -9.01892281E-04
   -1.07366364E-03
    9.24113704E-04
    9.26355191E-04
   -1.04853528E-03
   -9.26695321E-04
   -8.40696704E-04
   -7.69758394E-04
   -7.13860120E-04
   -6.71975790E-04
   -6.43005262E-04
   -6.22043966E-04
   -6.77264301E-04
   -6.48017701E-04
   -6.32560147E-04
   -6.74827157E-04
    9.08931519E-04
   -7.25571387E-04
   -8.04211280E-04
   -9.12390865E-04
   -1.08793230E-03
    8.88139247E-04
    9.42731786E-04
   -1.02696714E-03
   -9.08587139E-04
   -8.23758327E-04
   -7.53267520E-04
   -6.97347709E-04
   -6.59116581E-04
   -6.31908893E-04
   -6.18800685E-04
   -6.21380901E-04
   -6.41004602E-04
   -6.24847084E-04
   -6.40093037E-04
   -6.80443472E-04
   -1.10933801E-03
   -7.36502343E-04
   -8.19275435E-04
   -9.30847201E-04
   -1.13904402E-03
    8.61296286E-04
    9.54085684E-04
   -1.01106801E-03
   -8.94034706E-04
   -8.09017251E-04
   -7.39082283E-04
   -6.87002594E-04
   -6.50372419E-04
   -6.28218599E-04
   -6.17361944E-04
   -6.07951034E-04
   -6.15933372E-04
   -6.19413056E-04
   -6.46331423E-04
   -6.92681002E-04
   -9.57016399E-04
   -7.54857078E-04
   -8.42646574E-04
   -9.94476206E-04
   -1.17686043E-03
    8.28607541E-04
    9.61521171E-04
   -9.99669909E-04
   -8.82931743E-04
   -7.98400056E-04
   -7.32115443E-04
   -6.82018653E-04
   -6.46829646E-04
   -6.23879028E-04
   -6.06351917E-04
   -6.03771248E-04
   -6.11224700E-04
   -6.28259116E-04
   -6.60878170E-04
   -7.15289273E-04
   -8.73539072E-04
   -7.79415234E-04
   -9.25269033E-04
   -1.04553577E-03
   -1.22428886E-03
    7.91383422E-04
    9.65843424E-04
   -9.91833072E-04
   -8.75025554E-04
   -7.92681376E-04
   -7.27850386E-04
   -6.78747086E-04
   -6.43769586E-04
   -6.18916620E-04
   -6.06252732E-04
   -6.16209686E-04
   -6.21593464E-04
   -6.44299891E-04
   -6.83306614E-04
   -7.39251286E-04
   -8.22814417E-04
   -7.90800936E-04
   -8.91805264E-04
   -9.81304461E-04
   -1.11184015E-03
   -1.27317460E-03
    7.83761532E-04
    9.67618938E-04
   -9.87001272E-04
   -8.70874125E-04
   -7.89177598E-04
   -7.25456273E-04
   -6.78004033E-04
   -6.46070383E-04
   -6.26007022E-04
   -6.19417489E-04
   -6.24485038E-04
   -6.36904329E-04
   -6.60043472E-04
   -6.87844427E-04
   -7.53283291E-04
   -8.27309501E-04
   -9.25861924E-04
   -1.03971614E-03
   -1.20991722E-03
    8.16763855E-04
    9.67012788E-04
   -9.85104558E-04
   -8.69528057E-04
   -7.88941602E-04
   -7.27449893E-04
   -6.83264615E-04
   -6.54023211E-04
   -6.36655127E-04
   -6.31859676E-04
   -6.38320014E-04
   -6.56052847E-04
   -6.86564160E-04
   -7.29166812E-04
   -7.93927780E-04
   -8.80311888E-04
   -9.89645255E-04
   -1.15209824E-03
    8.56723923E-04
    9.64382406E-04
   -9.85336056E-04
   -8.70430738E-04
   -7.91519229E-04
   -7.33104231E-04
   -6.91784546E-04
   -6.63953525E-04
   -6.49772755E-04
   -6.47519498E-04
   -6.56881247E-04
   -6.83474834E-04
   -7.22921248E-04
   -7.78207206E-04
   -8.57263182E-04
   -9.55840905E-04
   -1.10952938E-03
    8.89598148E-04
    9.60055130E-04
   -9.87784220E-04
   -8.74100605E-04
   -7.97615397E-04
   -7.42221697E-04
   -7.02342960E-04
   -6.77695806E-04
   -6.66516207E-04
   -6.68580338E-04
   -6.88645051E-04
   -7.24111755E-04
   -7.75295761E-04
   -8.47170870E-04
   -9.37768171E-04
   -1.08214738E-03
    9.11637713E-04
    9.53840074E-04
   -9.92644132E-04
   -8.80823047E-04
   -8.07131137E-04
   -7.53868650E-04
   -7.17381823E-04
   -6.96124412E-04
   -6.89916853E-04
   -7.02986200E-04
   -7.32430720E-04
   -7.79679092E-04
   -8.46393905E-04
   -9.30844993E-04
   -1.06712602E-03
    9.23038142E-04
    9.45424901E-04
   -1.00025965E-03
   -8.91012089E-04
   -8.19913597E-04
   -7.70540932E-04
   -7.37833849E-04
   -7.21699899E-04
   -7.25847027E-04
   -7.48682831E-04
   -7.90171012E-04
   -8.52081651E-04
   -9.31917951E-04
   -1.06176832E-03
    9.25690823E-04
    9.34296873E-04
   -1.01127697E-03
   -9.05345760E-04
   -8.38444709E-04
   -7.92941813E-04
   -7.65105084E-04
   -7.58167062E-04
   -7.72312047E-04
   -8.07464974E-04
   -8.63415912E-04
   -9.39106116E-04
   -1.06381822E-03
    9.21445718E-04
    9.19679479E-04
   -1.02667781E-03
   -9.25618668E-04
   -8.62398399E-04
   -8.21603774E-04
   -8.01494561E-04
   -8.04104314E-04
   -8.31170944E-04
   -8.81087482E-04
   -9.51935910E-04
   -1.07191828E-03
    9.11678774E-04
    9.00654160E-04
   -1.04724203E-03
   -9.51235975E-04
   -8.92094323E-04
   -8.58015523E-04
   -8.46259421E-04
   -8.62174874E-04
   -9.04756844E-04
   -9.70961562E-04
   -1.08578132E-03
    8.96998166E-04
    8.76789160E-04
   -1.07317774E-03
   -9.82086935E-04
   -9.28591147E-04
   -9.01266404E-04
   -9.02626500E-04
   -9.35217326E-04
   -9.96031415E-04
   -1.10557633E-03
    8.77341624E-04
    8.48082608E-04
   -1.10409736E-03
   -1.01878058E-03
   -9.70778099E-04
   -9.55342684E-04
   -9.74220853E-04
   -1.02766874E-03
   -1.13149540E-03
    8.52372149E-04
    8.14128335E-04
   -1.14049352E-03
   -1.06134773E-03
   -1.02288939E-03
   -1.02424929E-03
   -1.06688895E-03
   -1.16392801E-03
    8.21670379E-04
    7.74231997E-04
   -1.18338749E-03
   -1.11236465E-03
   -1.08852087E-03
   -1.11582495E-03
   -1.20371632E-03
    7.84518080E-04
    7.27537818E-04
   -1.23364621E-03
   -1.17497070E-03
   -1.17716303E-03
   -1.25229714E-03
    7.39833462E-04
    6.72228204E-04
   -1.29501247E-03
   -1.25922767E-03
   -1.31191727E-03
    6.86153149E-04
    6.03957231E-04
   -1.37491766E-03
   -1.38857617E-03
    6.20430779E-04
    5.06333257E-04
   -1.49806394E-03
    5.30015624E-04
    4.46846712E-04
    4.76025531E-04
    4.61483496E-04
SCALARS Qinc float
LOOKUP_TABLE default
    3.30372340E-04
    3.85130878E-04
    4.02414206E-04
    3.82504378E-04
    0.00000000E+00
    4.24758098E-04
    4.16532988E-04
    0.00000000E+00
    0.00000000E+00
    4.02033595E-04
    0.00000000E+00
    0.00000000E+00
    4.26438962E-04
    4.22034690E-04
    0.00000000E+00
    0.00000000E+00
    0.00000000E+00
    0.00000000E+00
    4.19192523E-04
    0.00000000E+00
    0.00000000E+00
    0.00000000E+00
    4.12005745E-04
    3.96701480E-04
    0.00000000E+00
    0.00000000E+00
    0.00000000E+00
    0.00000000E+00
    0.00000000E+00
    0.00000000E+00
    4.33574003E-04
    0.00000000E+00
    0.00000000E+00
    0.00000000E+00
    3.76569039E-04
    3.56465705E-04
    0.00000000E+00
    0.00000000E+00
    0.00000000E+00
    0.00000000E+00
    0.00000000E+00
    0.00000000E+00
    0.00000000E+00
    0.00000000E+00
    4.45169606E-04
    0.00000000E+00
    0.00000000E+00
    0.00000000E+00
    0.00000000E+00
    2.42018295E-04
    0.00000000E+00
    0.00000000E+00
    0.00000000E+00
    0.00000000E+00
    0.00000000E+00
    0.00000000E+00
    0.00000000E+00
    0.00000000E+00
    0.00000000E+00
    0.00000000E+00
    4.53794822E-04
    0.00000000E+00
    0.00000000E+00
    0.00000000E+00
    0.00000000E+00
    0.00000000E+00
    3.18834048E-04
    0.00000000E+00
    0.00000000E+00
    0.00000000E+00
    0.00000000E+00
    0.00000000E+00
    0.00000000E+00
    0.00000000E+00
    0.00000000E+00
    0.00000000E+00
    4.59487817E-04
    0.00000000E+00
    0.00000000E+00
    0.00000000E+00
    0.00000000E+00
    0.00000000E+00
    0.00000000E+00
    4.62763185E-04
    3.51458895E-04
    0.00000000E+00
    0.00000000E+00
    0.00000000E+00
    0.00000000E+00
    0.00000000E+00
    0.00000000E+00
    0.00000000E+00
    0.00000000E+00
    0.00000000E+00
    0.00000000E+00
    0.00000000E+00
    0.00000000E+00
    0.00000000E+00
    0.00000000E+00
    0.00000000E+00
    0.00000000E+00
    4.64053507E-04
    3.75620601E-04
    0.00000000E+00
    0.00000000E+00
    0.00000000E+00
    0.00000000E+00
    0.00000000E+00
    0.00000000E+00
    0.00000000E+00
    0.00000000E+00
    0.00000000E+00
    0.00000000E+00
    0.00000000E+00
    0.00000000E+00
    0.00000000E+00
    0.00000000E+00
    0.00000000E+00
    4.63685205E-04
    3.94906572E-04
    0.00000000E+00
    0.00000000E+00
    0.00000000E+00
    0.00000000E+00
    0.00000000E+00
    0.00000000E+00
    0.00000000E+00
    0.00000000E+00
    0.00000000E+00
    0.00000000E+00
    0.00000000E+00
    0.00000000E+00
    0.00000000E+00
    0.00000000E+00
    0.00000000E+00
    0.00000000E+00
    4.61890481E-04
    4.11007915E-04
    0.00000000E+00
    0.00000000E+00
    0.00000000E+00
    0.00000000E+00
    0.00000000E+00
    0.00000000E+00
    0.00000000E+00
    0.00000000E+00
    0.00000000E+00
    0.00000000E+00
    0.00000000E+00
    0.00000000E+00
    0.00000000E+00
    0.00000000E+00
    0.00000000E+00
    0.00000000E+00